
3072 atoms
2 atom types

-7.78400000e+00 7.78400000e+00 xlo xhi
-7.78400000e+00 7.78400000e+00 ylo yhi
-2.26531800e+01 2.26531800e+01 zlo zhi

Masses

1 1.59994000e+01
2 1.00794000e+00

Atoms

1 1 7.7651899999999996e-01 9.2653799999999997e-01 6.6456300000000001e-01
2 2 7.0984700000000001e-01 1.0033700000000000e-02 1.4025700000000001e+00
3 2 7.4071299999999995e-01 1.7160000000000000e+00 1.5744700000000000e+00
4 1 8.0429499999999998e-01 9.8044399999999998e-01 6.3480600000000003e+00
5 2 1.1076900000000001e+00 -2.4223300000000000e-02 7.0861799999999997e+00
6 2 8.9452699999999996e-01 1.7988000000000000e+00 7.1437200000000001e+00
7 1 8.4223400000000004e-01 4.7407500000000002e+00 8.8885800000000004e-01
8 2 8.3559399999999995e-01 5.8215300000000001e+00 1.6667900000000000e+00
9 2 8.6141900000000005e-01 3.7258300000000002e+00 1.5704600000000000e+00
10 1 8.0236399999999997e-01 4.7719899999999997e+00 6.4545199999999996e+00
11 2 8.4044700000000006e-01 5.4805000000000001e+00 7.0606900000000001e+00
12 2 6.3081600000000004e-01 3.8716300000000001e+00 7.0531499999999996e+00
13 1 4.6262299999999996e+00 1.0058199999999999e+00 7.2531800000000002e-01
14 2 4.5987900000000002e+00 -3.8161099999999998e-01 1.5632600000000001e+00
15 2 4.7117399999999998e+00 1.8622700000000001e+00 1.4517800000000001e+00
16 1 4.6648100000000001e+00 9.2878000000000005e-01 6.3600800000000000e+00
17 2 4.5226300000000004e+00 -1.4892600000000000e-01 7.1529499999999997e+00
18 2 4.5844300000000002e+00 2.2386499999999998e+00 7.3005399999999998e+00
19 1 4.6581500000000000e+00 4.8300599999999996e+00 7.6801500000000000e-01
20 2 4.8149499999999996e+00 5.6184099999999999e+00 1.3276800000000000e+00
21 2 4.6511300000000002e+00 3.8470000000000000e+00 1.3632899999999999e+00
22 1 4.6778599999999999e+00 4.8895600000000004e+00 6.4168300000000000e+00
23 2 4.5245899999999999e+00 5.6784600000000003e+00 6.9944499999999996e+00
24 2 4.5414899999999996e+00 3.8654199999999999e+00 7.0034000000000001e+00
25 1 6.6559499999999998e+00 9.8033199999999998e-01 1.0605200000000000e+01
26 2 5.5260100000000003e+00 8.1375799999999998e-01 1.1343100000000000e+01
27 2 7.5378499999999997e+00 8.2819699999999996e-01 1.1301500000000001e+01
28 1 6.5635700000000003e+00 1.0359900000000000e+00 4.9438100000000000e+00
29 2 5.5944900000000004e+00 8.8429100000000005e-01 5.7247300000000001e+00
30 2 7.6003900000000000e+00 1.0615200000000000e+00 5.7537399999999996e+00
31 1 6.5578900000000004e+00 4.9524699999999999e+00 1.0612700000000000e+01
32 2 5.4873000000000003e+00 5.0085499999999996e+00 1.1552500000000000e+01
33 2 7.4090999999999996e+00 4.9734900000000000e+00 1.1223599999999999e+01
34 1 6.6407699999999998e+00 4.7879600000000000e+00 4.8944599999999996e+00
35 2 5.7668699999999999e+00 4.8810300000000000e+00 5.4565999999999999e+00
36 2 7.5798500000000004e+00 4.6557300000000001e+00 5.3422200000000002e+00
37 1 2.7421400000000000e+00 8.8784500000000000e-01 1.0657900000000000e+01
38 2 3.5747399999999998e+00 1.0042100000000000e+00 1.1339499999999999e+01
39 2 1.9091000000000000e+00 1.0485500000000001e+00 1.1234800000000000e+01
40 1 2.8135100000000000e+00 8.8336800000000004e-01 4.9962099999999996e+00
41 2 3.9501700000000000e+00 9.1835400000000000e-01 5.8311400000000004e+00
42 2 1.6397200000000001e+00 9.2579699999999998e-01 5.6246099999999997e+00
43 1 2.7604799999999998e+00 4.9014899999999999e+00 1.0660900000000000e+01
44 2 3.6144799999999999e+00 5.0360100000000001e+00 1.1345499999999999e+01
45 2 1.6525099999999999e+00 4.8991400000000001e+00 1.1440300000000001e+01
46 1 2.6435800000000000e+00 4.7896299999999998e+00 4.9019000000000004e+00
47 2 3.2004700000000001e+00 5.0098000000000003e+00 5.7708199999999996e+00
48 2 1.7432900000000000e+00 4.7493499999999997e+00 5.7856699999999996e+00
49 1 9.1117499999999996e-01 6.7492099999999997e+00 2.2370000000000001e+00
50 2 -1.8143400000000001e-01 6.7925500000000003e+00 2.8614199999999999e+00
51 2 1.7401800000000001e+00 7.0227399999999998e+00 2.8955299999999999e+00
52 1 8.4667999999999999e-01 6.7855800000000004e+00 7.8786100000000001e+00
53 2 -8.5122099999999992e-03 6.8758900000000001e+00 8.4420999999999999e+00
54 2 1.7068500000000000e+00 6.8249500000000003e+00 8.6082500000000000e+00
55 1 7.9435800000000001e-01 2.7775400000000001e+00 2.1683400000000002e+00
56 2 -2.8147100000000003e-01 2.9011700000000000e+00 2.8166199999999999e+00
57 2 1.8685499999999999e+00 2.9878600000000000e+00 2.8216700000000001e+00
58 1 8.0953500000000000e-01 2.8429099999999998e+00 7.8463500000000002e+00
59 2 -1.0523800000000000e-01 2.7357600000000000e+00 8.5038900000000002e+00
60 2 1.6584700000000001e+00 2.7172299999999998e+00 8.3055400000000006e+00
61 1 4.6333299999999999e+00 6.7683799999999996e+00 2.0834100000000002e+00
62 2 5.5739099999999997e+00 6.7575500000000002e+00 2.5433800000000000e+00
63 2 3.6028799999999999e+00 6.9067600000000002e+00 2.7675500000000000e+00
64 1 4.5970500000000003e+00 6.8128299999999999e+00 7.6592900000000004e+00
65 2 5.5331299999999999e+00 6.9857300000000002e+00 8.0623900000000006e+00
66 2 3.4991800000000000e+00 6.8410599999999997e+00 8.6454699999999995e+00
67 1 4.7176299999999998e+00 2.8510300000000002e+00 2.1118500000000000e+00
68 2 5.6403100000000004e+00 2.7959000000000001e+00 2.7707999999999999e+00
69 2 3.9381800000000000e+00 2.8927200000000002e+00 2.7778900000000002e+00
70 1 4.7102199999999996e+00 2.9519199999999999e+00 7.8627900000000004e+00
71 2 5.6742699999999999e+00 3.0717300000000001e+00 8.6018100000000004e+00
72 2 3.8160500000000002e+00 2.7115900000000002e+00 8.3243399999999994e+00
73 1 7.2367800000000004e-01 6.7831700000000001e+00 1.0634399999999999e+01
74 2 7.3230099999999998e-01 5.7609899999999996e+00 1.0011799999999999e+01
75 2 8.5237600000000002e-01 7.8148499999999999e+00 9.8156599999999994e+00
76 1 8.1622099999999997e-01 6.7626099999999996e+00 5.0895099999999998e+00
77 2 9.0826799999999996e-01 5.8747199999999999e+00 4.0884200000000002e+00
78 2 9.0953300000000004e-01 7.8174999999999999e+00 4.5221700000000000e+00
79 1 7.7337400000000001e-01 3.0510000000000002e+00 1.0685400000000000e+01
80 2 6.2342799999999998e-01 3.9025900000000000e+00 9.8700700000000001e+00
81 2 9.7754700000000005e-01 2.0821399999999999e+00 1.0151800000000000e+01
82 1 8.1568900000000000e-01 2.8875099999999998e+00 4.9538599999999997e+00
83 2 7.1261699999999994e-01 3.7093500000000001e+00 4.0248600000000003e+00
84 2 9.3543399999999999e-01 1.9715499999999999e+00 4.4004700000000003e+00
85 1 4.6465800000000002e+00 6.8530800000000003e+00 1.0536400000000000e+01
86 2 4.6985599999999996e+00 5.6922199999999998e+00 9.9049099999999992e+00
87 2 4.6786500000000002e+00 7.8577100000000000e+00 1.0114300000000000e+01
88 1 4.7024699999999999e+00 6.7135699999999998e+00 4.9933699999999996e+00
89 2 4.5441700000000003e+00 5.7792300000000001e+00 4.3232900000000001e+00
90 2 4.7649699999999999e+00 7.6085900000000004e+00 4.4091800000000001e+00
91 1 4.5567200000000003e+00 2.9051200000000001e+00 1.0715100000000000e+01
92 2 4.6193999999999997e+00 3.7974100000000002e+00 9.8731100000000005e+00
93 2 4.5468299999999999e+00 1.8405600000000000e+00 1.0025700000000001e+01
94 1 4.6013500000000001e+00 2.9830600000000000e+00 5.0416600000000003e+00
95 2 4.6676000000000002e+00 4.0246300000000002e+00 4.2275600000000004e+00
96 2 4.7150600000000003e+00 2.0915400000000002e+00 4.4530799999999999e+00
97 1 7.8392099999999998e-01 1.0377600000000000e+00 9.2203499999999998e+00
98 2 -9.6997500000000000e-02 9.4319500000000001e-01 8.7269799999999993e+00
99 2 1.7453000000000001e+00 1.0621600000000000e+00 8.7109299999999994e+00
100 1 8.1803300000000001e-01 9.6646799999999999e-01 3.4371600000000000e+00
101 2 -2.9138700000000001e-01 9.1145200000000004e-01 2.9236499999999999e+00
102 2 1.7513099999999999e+00 9.0695000000000003e-01 2.7540000000000000e+00
103 1 7.8863899999999998e-01 4.8494400000000004e+00 9.2011900000000004e+00
104 2 -2.3418900000000001e-01 4.6612700000000000e+00 8.7769300000000001e+00
105 2 1.8212100000000000e+00 4.7353500000000004e+00 8.4720999999999993e+00
106 1 7.8788899999999995e-01 4.7958299999999996e+00 3.5524200000000001e+00
107 2 -7.8404399999999999e-02 4.9629399999999997e+00 2.8755899999999999e+00
108 2 1.9558700000000000e+00 4.8228400000000002e+00 2.9171999999999998e+00
109 1 4.6367099999999999e+00 9.7888500000000001e-01 9.2053700000000003e+00
110 2 5.7028900000000000e+00 8.7564299999999995e-01 8.5110200000000003e+00
111 2 3.8351700000000002e+00 1.0865400000000001e+00 8.5619200000000006e+00
112 1 4.5517799999999999e+00 9.6765900000000005e-01 3.5912799999999998e+00
113 2 5.4517199999999999e+00 7.6101700000000005e-01 3.2729499999999998e+00
114 2 3.6433200000000001e+00 9.0599200000000002e-01 2.7729300000000001e+00
115 1 4.7084799999999998e+00 4.8808400000000001e+00 9.2505199999999999e+00
116 2 5.6795900000000001e+00 4.9180900000000003e+00 8.7468100000000000e+00
117 2 3.7454399999999999e+00 4.9986300000000004e+00 8.4440600000000003e+00
118 1 4.6804199999999998e+00 4.8052599999999996e+00 3.5416300000000001e+00
119 2 5.6730700000000001e+00 4.7307300000000003e+00 2.7160899999999999e+00
120 2 3.6203699999999999e+00 4.8834099999999996e+00 2.6708400000000001e+00
121 1 6.7560399999999996e+00 6.8834600000000004e+00 7.1123099999999995e-01
122 2 5.8538699999999997e+00 6.9942500000000001e+00 -1.1604300000000000e-02
123 2 7.7207200000000000e+00 6.7782099999999996e+00 6.4124400000000002e-03
124 1 6.6666699999999999e+00 6.8568400000000000e+00 6.3496800000000002e+00
125 2 5.8610400000000000e+00 6.7584600000000004e+00 5.7367200000000000e+00
126 2 7.9096200000000003e+00 6.8860500000000000e+00 5.5402600000000000e+00
127 1 6.5767100000000003e+00 2.9516300000000002e+00 6.0149900000000001e-01
128 2 5.3965399999999999e+00 2.8740299999999999e+00 -1.7986400000000000e-01
129 2 7.4932999999999996e+00 2.9705100000000000e+00 4.2618099999999999e-02
130 1 6.6688799999999997e+00 2.8657100000000000e+00 6.3452200000000003e+00
131 2 5.5775399999999999e+00 2.9137700000000000e+00 5.7603900000000001e+00
132 2 7.8986499999999999e+00 2.9966200000000001e+00 5.6451099999999999e+00
133 1 2.7007900000000000e+00 6.8434799999999996e+00 7.4355599999999999e-01
134 2 3.7380800000000001e+00 6.7085600000000003e+00 -1.7298100000000000e-01
135 2 1.8156800000000000e+00 6.6478500000000000e+00 4.8527399999999998e-02
136 1 2.8027700000000002e+00 6.7180900000000001e+00 6.3589200000000003e+00
137 2 3.8137900000000000e+00 6.7273899999999998e+00 5.7547199999999998e+00
138 2 1.8829800000000001e+00 6.8105500000000001e+00 5.7262399999999998e+00
139 1 2.7543500000000001e+00 2.8952599999999999e+00 6.5584100000000001e-01
140 2 3.7300200000000001e+00 2.7862700000000000e+00 9.7853300000000004e-02
141 2 1.6207000000000000e+00 2.8539400000000001e+00 -8.8372500000000007e-02
142 1 2.7543199999999999e+00 2.9114599999999999e+00 6.4215000000000000e+00
143 2 3.6486100000000001e+00 2.8842800000000000e+00 5.7599400000000003e+00
144 2 1.8683900000000000e+00 2.8622200000000002e+00 5.6461800000000002e+00
145 1 6.7024600000000003e+00 6.9261499999999998e+00 9.1895799999999994e+00
146 2 6.4923599999999997e+00 6.0120800000000001e+00 1.0072100000000001e+01
147 2 6.5507200000000001e+00 7.8367399999999998e+00 9.8068299999999997e+00
148 1 6.6742299999999997e+00 6.8575499999999998e+00 3.5441199999999999e+00
149 2 6.5515499999999998e+00 5.9624600000000001e+00 4.0266500000000001e+00
150 2 6.6570700000000000e+00 7.6551000000000000e+00 4.2465500000000000e+00
151 1 6.5962699999999996e+00 3.0428899999999999e+00 9.1883999999999997e+00
152 2 6.5924199999999997e+00 4.0481499999999997e+00 1.0115900000000000e+01
153 2 6.6293499999999996e+00 2.0642700000000000e+00 9.6791499999999999e+00
154 1 6.6749900000000002e+00 2.9302299999999999e+00 3.5545100000000001e+00
155 2 6.5053700000000001e+00 3.7020200000000001e+00 4.3444300000000000e+00
156 2 6.6853300000000004e+00 2.0445199999999999e+00 4.2126999999999999e+00
157 1 2.7111399999999999e+00 6.8358699999999999e+00 9.2327300000000001e+00
158 2 2.6699600000000001e+00 5.6990100000000004e+00 1.0148700000000000e+01
159 2 2.6335299999999999e+00 7.9100299999999999e+00 1.0113000000000000e+01
160 1 2.8235000000000001e+00 6.6470799999999999e+00 3.6400899999999998e+00
161 2 2.6319800000000000e+00 5.7142499999999998e+00 4.3468499999999999e+00
162 2 2.7927900000000001e+00 7.6075400000000002e+00 4.0994500000000000e+00
163 1 2.8141300000000000e+00 2.8745400000000001e+00 9.2943400000000000e+00
164 2 2.7046399999999999e+00 3.7109100000000002e+00 9.7593099999999993e+00
165 2 2.9304899999999998e+00 2.1979700000000002e+00 1.0013299999999999e+01
166 1 2.8344700000000000e+00 2.7875700000000001e+00 3.4555300000000000e+00
167 2 2.8272300000000001e+00 3.6751700000000000e+00 3.9986500000000000e+00
168 2 2.8952499999999999e+00 1.7084400000000000e+00 4.4271200000000004e+00
169 1 6.5208599999999999e+00 9.2418599999999995e-01 2.0433699999999999e+00
170 2 6.6184000000000003e+00 1.0273100000000000e-01 1.4825600000000001e+00
171 2 6.5499099999999997e+00 2.2439100000000001e+00 1.2457300000000000e+00
172 1 6.6405399999999997e+00 1.0231699999999999e+00 7.7847499999999998e+00
173 2 6.7055800000000003e+00 1.6956399999999999e-01 7.1849800000000004e+00
174 2 6.6054199999999996e+00 2.0724999999999998e+00 6.9915799999999999e+00
175 1 6.6517200000000001e+00 4.8783300000000001e+00 2.1179899999999998e+00
176 2 6.8163400000000003e+00 5.9461500000000003e+00 1.4610200000000000e+00
177 2 6.6233399999999998e+00 4.0602600000000004e+00 1.3100700000000001e+00
178 1 6.6609800000000003e+00 4.8739999999999997e+00 7.7744400000000002e+00
179 2 6.5618299999999996e+00 5.7936199999999998e+00 7.1819899999999999e+00
180 2 6.4775200000000002e+00 4.1849499999999997e+00 6.9285500000000004e+00
181 1 2.7345700000000002e+00 8.9593400000000001e-01 2.0895600000000001e+00
182 2 2.7072900000000000e+00 -2.2454600000000000e-01 1.4213700000000000e+00
183 2 2.7334299999999998e+00 1.7776700000000001e+00 1.4917199999999999e+00
184 1 2.7370600000000000e+00 1.0755200000000000e+00 7.8623399999999997e+00
185 2 2.6857000000000002e+00 3.5410799999999998e-01 7.1635999999999997e+00
186 2 2.7164899999999998e+00 1.8651100000000000e+00 7.0754799999999998e+00
187 1 2.8034800000000000e+00 4.8646000000000003e+00 2.2039700000000000e+00
188 2 2.8265899999999999e+00 5.8235400000000004e+00 1.5017600000000000e+00
189 2 3.0987200000000001e+00 3.7039200000000001e+00 1.3486199999999999e+00
190 1 2.7222300000000001e+00 4.7757600000000000e+00 7.8884600000000002e+00
191 2 2.7014100000000001e+00 5.8398199999999996e+00 6.9979899999999997e+00
192 2 2.5988000000000002e+00 3.9904000000000002e+00 7.1428799999999999e+00
193 1 8.6327800000000003e+00 8.3818599999999999e-01 7.5317699999999999e-01
194 2 8.7426499999999994e+00 -2.5509199999999999e-01 1.5711700000000000e+00
195 2 8.5995000000000008e+00 1.6453700000000000e+00 1.5633999999999999e+00
196 1 8.4751799999999999e+00 9.4321299999999997e-01 6.4249900000000002e+00
197 2 8.7865699999999993e+00 2.8166099999999999e-01 7.2064300000000001e+00
198 2 8.5144599999999997e+00 1.8969800000000001e+00 7.0659200000000002e+00
199 1 8.5582700000000003e+00 4.8125900000000001e+00 6.1509999999999998e-01
200 2 8.6203199999999995e+00 5.8204099999999999e+00 1.4367200000000000e+00
201 2 8.4729299999999999e+00 3.8003300000000002e+00 1.4273400000000001e+00
202 1 8.6037499999999998e+00 4.8243400000000003e+00 6.3640699999999999e+00
203 2 8.7619799999999994e+00 5.4987199999999996e+00 7.0240099999999996e+00
204 2 8.7351799999999997e+00 3.8790000000000000e+00 7.1031500000000003e+00
205 1 1.2466200000000001e+01 9.5621699999999998e-01 7.4014100000000005e-01
206 2 1.2268200000000000e+01 2.4246100000000000e-02 1.2544999999999999e+00
207 2 1.2429600000000001e+01 1.6914000000000000e+00 1.4106500000000000e+00
208 1 1.2426100000000000e+01 9.3631799999999998e-01 6.3679500000000004e+00
209 2 1.2324100000000000e+01 -8.9627299999999993e-02 7.1897700000000002e+00
210 2 1.2776100000000000e+01 2.1826699999999999e+00 7.1347199999999997e+00
211 1 1.2449199999999999e+01 4.7738300000000002e+00 6.4385099999999995e-01
212 2 1.2583600000000001e+01 5.8004300000000004e+00 1.7376900000000000e+00
213 2 1.2423800000000000e+01 3.8138299999999998e+00 1.6443800000000000e+00
214 1 1.2517200000000001e+01 4.8560699999999999e+00 6.4468300000000003e+00
215 2 1.2538100000000000e+01 5.7358900000000004e+00 6.9895199999999997e+00
216 2 1.2483599999999999e+01 3.8489900000000001e+00 7.2103900000000003e+00
217 1 1.4334700000000000e+01 9.4669599999999998e-01 1.0781100000000000e+01
218 2 1.3190500000000000e+01 1.0807700000000000e+00 1.1471900000000000e+01
219 2 1.5289300000000001e+01 8.9437699999999998e-01 1.1280600000000000e+01
220 1 1.4389400000000000e+01 9.8540600000000000e-01 4.8943500000000002e+00
221 2 1.3321400000000001e+01 8.8393699999999997e-01 5.5730500000000003e+00
222 2 1.5235200000000001e+01 9.8534800000000000e-01 5.7452300000000003e+00
223 1 1.4401600000000000e+01 4.9419800000000000e+00 1.0549500000000000e+01
224 2 1.3457700000000001e+01 4.9466700000000001e+00 1.1502300000000000e+01
225 2 1.5108700000000001e+01 5.0803500000000001e+00 1.1315400000000000e+01
226 1 1.4413600000000001e+01 4.8908399999999999e+00 4.9305199999999996e+00
227 2 1.3754500000000000e+01 4.9359900000000003e+00 5.6161700000000003e+00
228 2 1.5316400000000000e+01 4.8597200000000003e+00 5.6604099999999997e+00
229 1 1.0500900000000000e+01 9.2421699999999996e-01 1.0539400000000001e+01
230 2 1.1362500000000001e+01 9.7168800000000000e-01 1.1252500000000000e+01
231 2 9.5080299999999998e+00 8.5947899999999999e-01 1.1247000000000000e+01
232 1 1.0570600000000001e+01 1.0997900000000000e+00 4.9502300000000004e+00
233 2 1.1701000000000001e+01 8.0376099999999995e-01 5.6037200000000000e+00
234 2 9.6867999999999999e+00 1.1076900000000001e+00 5.6197999999999997e+00
235 1 1.0373200000000001e+01 4.8854899999999999e+00 1.0621200000000000e+01
236 2 1.1354500000000000e+01 4.8760899999999996e+00 1.1103500000000000e+01
237 2 9.5803799999999999e+00 4.7374099999999997e+00 1.1468900000000000e+01
238 1 1.0521400000000000e+01 4.9064199999999998e+00 4.9909600000000003e+00
239 2 1.1626500000000000e+01 5.0060000000000002e+00 5.9003300000000003e+00
240 2 9.4306500000000000e+00 4.7470900000000000e+00 5.9033499999999997e+00
241 1 8.6470500000000001e+00 6.7858900000000002e+00 2.1052800000000000e+00
242 2 7.6004600000000000e+00 6.8718300000000001e+00 2.8503099999999999e+00
243 2 9.6768800000000006e+00 6.8814900000000003e+00 2.7412700000000001e+00
244 1 8.5410799999999991e+00 6.8282499999999997e+00 7.7096900000000002e+00
245 2 7.5605300000000000e+00 6.7451100000000004e+00 8.6326599999999996e+00
246 2 9.5560299999999998e+00 6.8442200000000000e+00 8.3881800000000002e+00
247 1 8.5287500000000005e+00 2.9011600000000000e+00 2.0880399999999999e+00
248 2 7.6238799999999998e+00 2.7465600000000001e+00 2.9065699999999999e+00
249 2 9.6852300000000007e+00 2.9143599999999998e+00 2.8763500000000000e+00
250 1 8.6329999999999991e+00 2.9538700000000002e+00 7.7375900000000000e+00
251 2 7.6900899999999996e+00 3.1551499999999999e+00 8.3876600000000003e+00
252 2 9.3618000000000006e+00 2.9677199999999999e+00 8.5200700000000005e+00
253 1 1.2555400000000001e+01 6.7899200000000004e+00 2.1612200000000001e+00
254 2 1.3671500000000000e+01 6.7747500000000000e+00 2.7470400000000001e+00
255 2 1.1509499999999999e+01 6.7900999999999998e+00 3.1646200000000002e+00
256 1 1.2516000000000000e+01 6.9012000000000002e+00 7.7859200000000000e+00
257 2 1.3538600000000001e+01 6.9463100000000004e+00 8.5867699999999996e+00
258 2 1.1528200000000000e+01 6.8588300000000002e+00 8.4410100000000003e+00
259 1 1.2496800000000000e+01 2.8086899999999999e+00 2.1868099999999999e+00
260 2 1.3361900000000000e+01 2.9662000000000002e+00 2.8950700000000000e+00
261 2 1.1482400000000000e+01 2.9209399999999999e+00 3.1098499999999998e+00
262 1 1.2587400000000001e+01 2.8977599999999999e+00 7.8264800000000001e+00
263 2 1.3590900000000000e+01 2.7829299999999999e+00 8.8489599999999999e+00
264 2 1.1693899999999999e+01 2.9204200000000000e+00 8.3408899999999999e+00
265 1 8.5670199999999994e+00 6.8475500000000000e+00 1.0601300000000000e+01
266 2 8.5283599999999993e+00 5.9970699999999999e+00 1.0130800000000001e+01
267 2 8.5728100000000005e+00 7.8866600000000000e+00 9.8303200000000004e+00
268 1 8.6930700000000005e+00 6.7543600000000001e+00 4.9167600000000000e+00
269 2 8.5388400000000004e+00 5.8356599999999998e+00 4.0042799999999996e+00
270 2 8.4782700000000002e+00 7.8511699999999998e+00 3.9296199999999999e+00
271 1 8.5061499999999999e+00 2.9370900000000000e+00 1.0646800000000001e+01
272 2 8.5146300000000004e+00 3.8473299999999999e+00 9.8621099999999995e+00
273 2 8.6868400000000001e+00 1.8720699999999999e+00 1.0045100000000000e+01
274 1 8.6312300000000004e+00 2.8586399999999998e+00 4.9088500000000002e+00
275 2 8.6728000000000005e+00 3.5682399999999999e+00 4.3886799999999999e+00
276 2 8.4998299999999993e+00 1.7696400000000001e+00 4.0799099999999999e+00
277 1 1.2548299999999999e+01 6.7441300000000002e+00 1.0566800000000001e+01
278 2 1.2658400000000000e+01 5.7207100000000004e+00 9.8059200000000004e+00
279 2 1.2414800000000000e+01 7.6135799999999998e+00 1.0084300000000001e+01
280 1 1.2611300000000000e+01 6.8758800000000004e+00 4.9398200000000001e+00
281 2 1.2635199999999999e+01 5.8064900000000002e+00 3.9789800000000000e+00
282 2 1.2532299999999999e+01 7.8214199999999998e+00 4.5217200000000002e+00
283 1 1.2489100000000001e+01 2.9119299999999999e+00 1.0574299999999999e+01
284 2 1.2276300000000001e+01 4.0627599999999999e+00 9.8464200000000002e+00
285 2 1.2597500000000000e+01 1.8686600000000000e+00 9.7775499999999997e+00
286 1 1.2515499999999999e+01 2.9716800000000001e+00 5.0340900000000000e+00
287 2 1.2493600000000001e+01 4.2047299999999996e+00 4.3262600000000004e+00
288 2 1.2475500000000000e+01 2.0130499999999998e+00 4.6002099999999997e+00
289 1 8.5949700000000000e+00 1.1679400000000000e+00 9.1617099999999994e+00
290 2 7.4134200000000003e+00 1.2161100000000000e+00 8.4290199999999995e+00
291 2 9.4632400000000008e+00 8.7314300000000000e-01 8.3131100000000000e+00
292 1 8.5160400000000003e+00 8.9429599999999998e-01 3.4423100000000000e+00
293 2 7.1664500000000002e+00 9.5660699999999999e-01 2.7445599999999999e+00
294 2 9.2826299999999993e+00 9.3310800000000005e-01 2.7661899999999999e+00
295 1 8.4737200000000001e+00 4.9257299999999997e+00 9.3260199999999998e+00
296 2 7.5164400000000002e+00 5.1120799999999997e+00 8.6531800000000008e+00
297 2 9.4136799999999994e+00 4.9688299999999996e+00 8.7728699999999993e+00
298 1 8.5936800000000009e+00 4.9119099999999998e+00 3.4777399999999998e+00
299 2 7.7092499999999999e+00 4.9550500000000000e+00 2.8277899999999998e+00
300 2 9.4965299999999999e+00 4.9289300000000003e+00 2.8755400000000000e+00
301 1 1.2519100000000000e+01 9.5029799999999998e-01 9.2929899999999996e+00
302 2 1.3560600000000001e+01 9.7268800000000000e-01 8.4210600000000007e+00
303 2 1.1344300000000000e+01 8.8475499999999996e-01 8.3744800000000001e+00
304 1 1.2345800000000001e+01 9.5026299999999997e-01 3.5278700000000001e+00
305 2 1.3267600000000000e+01 8.3093700000000004e-01 3.0647899999999999e+00
306 2 1.1244700000000000e+01 7.9844899999999996e-01 2.8999500000000000e+00
307 1 1.2412800000000001e+01 4.8231200000000003e+00 9.1231600000000004e+00
308 2 1.3401400000000001e+01 4.8223799999999999e+00 8.4449699999999996e+00
309 2 1.1127800000000001e+01 4.9578300000000004e+00 8.5776000000000003e+00
310 1 1.2551000000000000e+01 4.8787000000000003e+00 3.5174300000000001e+00
311 2 1.3428500000000000e+01 4.7546400000000002e+00 2.7926600000000001e+00
312 2 1.1373200000000001e+01 4.9247600000000000e+00 2.9022500000000000e+00
313 1 1.4452900000000000e+01 6.8614800000000002e+00 8.0468799999999996e-01
314 2 1.3482799999999999e+01 6.8071400000000004e+00 2.0799100000000001e-01
315 2 1.5685300000000000e+01 6.9697899999999997e+00 -1.0625600000000000e-01
316 1 1.4494700000000000e+01 6.7415399999999996e+00 6.3943899999999996e+00
317 2 1.3638500000000001e+01 6.8924700000000003e+00 5.7922399999999996e+00
318 2 1.5362100000000000e+01 6.6036500000000000e+00 5.5039300000000004e+00
319 1 1.4425400000000000e+01 2.9589300000000001e+00 7.5299099999999997e-01
320 2 1.3489000000000001e+01 2.9806400000000002e+00 -1.1501300000000000e-01
321 2 1.5201300000000000e+01 2.7345899999999999e+00 3.6007999999999998e-02
322 1 1.4508500000000000e+01 2.9669599999999998e+00 6.4907599999999999e+00
323 2 1.3622600000000000e+01 3.0539000000000001e+00 5.7264600000000003e+00
324 2 1.5557499999999999e+01 2.9056700000000002e+00 5.6358100000000002e+00
325 1 1.0658600000000000e+01 6.9031799999999999e+00 6.1628799999999995e-01
326 2 1.1652100000000001e+01 6.9112099999999996e+00 -1.8373199999999999e-02
327 2 9.4393700000000003e+00 6.7967000000000004e+00 -5.4242699999999998e-02
328 1 1.0505300000000000e+01 6.9039000000000001e+00 6.3919400000000000e+00
329 2 1.1811100000000000e+01 6.8317300000000003e+00 5.5247599999999997e+00
330 2 9.3657400000000006e+00 6.9535200000000001e+00 5.8158899999999996e+00
331 1 1.0551900000000000e+01 2.8911899999999999e+00 6.2294899999999997e-01
332 2 1.1518500000000000e+01 2.9365700000000001e+00 2.0976499999999999e-02
333 2 9.6979100000000003e+00 2.7809499999999998e+00 -4.4951600000000001e-02
334 1 1.0603199999999999e+01 2.9631099999999999e+00 6.4091899999999997e+00
335 2 1.1642799999999999e+01 2.8679899999999998e+00 5.7172700000000001e+00
336 2 9.5932099999999991e+00 2.9918900000000002e+00 5.8650200000000003e+00
337 1 1.4472500000000000e+01 6.8953699999999998e+00 9.1887000000000008e+00
338 2 1.4486200000000000e+01 5.9199799999999998e+00 9.8267399999999991e+00
339 2 1.4601000000000001e+01 7.7098100000000001e+00 9.8221299999999996e+00
340 1 1.4430199999999999e+01 6.8400600000000003e+00 3.5656099999999999e+00
341 2 1.4546200000000001e+01 5.8261799999999999e+00 4.1346100000000003e+00
342 2 1.4490000000000000e+01 7.8661700000000003e+00 4.5106299999999999e+00
343 1 1.4419800000000000e+01 2.8674100000000000e+00 9.2627500000000005e+00
344 2 1.4216500000000000e+01 4.0930000000000000e+00 9.9371299999999998e+00
345 2 1.4435200000000000e+01 1.6520699999999999e+00 1.0090700000000000e+01
346 1 1.4489599999999999e+01 2.9382500000000000e+00 3.6728000000000001e+00
347 2 1.4187799999999999e+01 3.8482799999999999e+00 4.1407900000000000e+00
348 2 1.4331200000000001e+01 2.0366700000000000e+00 4.2886600000000001e+00
349 1 1.0612700000000000e+01 6.8071000000000002e+00 9.0952699999999993e+00
350 2 1.0462300000000001e+01 5.7391699999999997e+00 1.0031300000000000e+01
351 2 1.0566200000000000e+01 7.6363000000000003e+00 9.8470200000000006e+00
352 1 1.0562200000000001e+01 6.7692699999999997e+00 3.5386899999999999e+00
353 2 1.0553500000000000e+01 5.7944699999999996e+00 4.3795400000000004e+00
354 2 1.0556400000000000e+01 7.8195499999999996e+00 4.4750500000000004e+00
355 1 1.0452900000000000e+01 2.9633300000000000e+00 9.2229299999999999e+00
356 2 1.0460800000000001e+01 3.7632500000000002e+00 1.0092400000000000e+01
357 2 1.0595599999999999e+01 2.0519200000000000e+00 9.9841499999999996e+00
358 1 1.0577400000000001e+01 2.9912999999999998e+00 3.5775999999999999e+00
359 2 1.0456300000000001e+01 4.1076499999999996e+00 4.3282600000000002e+00
360 2 1.0342499999999999e+01 1.8628199999999999e+00 4.2126500000000000e+00
361 1 1.4267200000000001e+01 1.0011500000000000e+00 2.2407599999999999e+00
362 2 1.4553800000000001e+01 1.1480300000000000e-01 1.7086900000000000e+00
363 2 1.4343100000000000e+01 2.2085699999999999e+00 1.4420400000000000e+00
364 1 1.4357300000000000e+01 9.9017200000000005e-01 7.8224900000000002e+00
365 2 1.4403000000000000e+01 1.1963900000000000e-01 7.1740199999999996e+00
366 2 1.4486499999999999e+01 2.2396099999999999e+00 7.1178900000000001e+00
367 1 1.4393599999999999e+01 4.9236800000000001e+00 2.2067199999999998e+00
368 2 1.4172100000000000e+01 5.9335699999999996e+00 1.2374099999999999e+00
369 2 1.4368700000000000e+01 4.1508700000000003e+00 1.4440700000000000e+00
370 1 1.4496700000000001e+01 4.7906700000000004e+00 7.7962899999999999e+00
371 2 1.4406300000000000e+01 5.5666000000000002e+00 7.1804800000000002e+00
372 2 1.4547800000000001e+01 3.8631600000000001e+00 7.1306300000000000e+00
373 1 1.0514699999999999e+01 8.9807499999999996e-01 2.1456000000000000e+00
374 2 1.0427800000000000e+01 5.1422000000000002e-02 1.3850700000000000e+00
375 2 1.0515300000000000e+01 1.9918499999999999e+00 1.2653099999999999e+00
376 1 1.0512200000000000e+01 1.0399000000000000e+00 7.6701300000000003e+00
377 2 1.0550900000000000e+01 -6.5850800000000001e-02 6.9749699999999999e+00
378 2 1.0609700000000000e+01 2.0311900000000001e+00 6.8912399999999998e+00
379 1 1.0584500000000000e+01 4.8523500000000004e+00 2.0895000000000001e+00
380 2 1.0661600000000000e+01 5.8817000000000004e+00 1.4620700000000000e+00
381 2 1.0579800000000001e+01 3.8292299999999999e+00 1.2865599999999999e+00
382 1 1.0374200000000000e+01 4.9069500000000001e+00 7.7393200000000002e+00
383 2 1.0703900000000001e+01 5.9315600000000002e+00 7.0990399999999996e+00
384 2 1.0374700000000001e+01 4.1173200000000003e+00 7.1085099999999999e+00
385 1 7.3358500000000004e-01 8.7300799999999992e+00 7.1907699999999997e-01
386 2 6.7488800000000004e-01 7.3818200000000003e+00 1.5383000000000000e+00
387 2 8.5616599999999998e-01 9.6140600000000003e+00 1.3999100000000000e+00
388 1 8.0283300000000002e-01 8.7055699999999998e+00 6.4492399999999996e+00
389 2 8.7143700000000002e-01 7.7847099999999996e+00 7.1677400000000002e+00
390 2 8.7405699999999997e-01 9.7369000000000003e+00 7.1942000000000004e+00
391 1 7.7449000000000001e-01 1.2656599999999999e+01 7.4094300000000002e-01
392 2 7.9609600000000003e-01 1.3361599999999999e+01 1.4361500000000000e+00
393 2 5.9594599999999998e-01 1.1880800000000001e+01 1.3794999999999999e+00
394 1 8.2588300000000003e-01 1.2707100000000001e+01 6.2939100000000003e+00
395 2 5.6857899999999995e-01 1.3570600000000001e+01 6.9328099999999999e+00
396 2 7.3339399999999999e-01 1.1782000000000000e+01 7.1532200000000001e+00
397 1 4.7311699999999997e+00 8.7435100000000006e+00 7.2640800000000005e-01
398 2 4.7731000000000003e+00 7.7565499999999998e+00 1.2747800000000000e+00